64
energy=-462.575734    virial="312.223514    0.415466    3.183199    0.415466    310.491175    -2.546804    3.183199    -2.546804    306.765953"    Lattice="6.349604208   0.0   0.0   0.0   6.349604208   0.0   0.0   0.0   6.349604208"     Properties=species:S:1:pos:R:3:Z:I:1:force:R:3
B    1.58740000000   4.76220000000   0.00000000000   5    -1.52597200000   3.76608100000   1.99283600000
B    1.58740000000   0.00000000000   1.58740000000   5    -0.44968000000  -0.85431400000  -0.45170300000
B    3.17480000000   4.76220000000   4.76220000000   5    -1.50476400000   5.41693500000   0.57314500000
B    1.58740000000   4.76220000000   3.17480000000   5    -0.46076700000  -0.00077100000  -0.30331100000
B    1.58740000000   3.17480000000   1.58740000000   5    -0.78659100000   0.18935200000   0.29248400000
B    3.96850000000   3.96850000000   3.96850000000   5     2.07951600000  -3.41216800000  -1.59434600000
B    3.96850000000   2.38110000000   2.38110000000   5     1.17351200000   0.41330700000   0.22780500000
B    2.38110000000   3.96850000000   5.55590000000   5     1.03849200000  -5.89545800000  -0.93590800000
C    3.17480000000   1.58740000000   1.58740000000   6    -2.38166500000  -1.76738300000  -1.67078900000
C    2.38110000000   5.55590000000   0.79370000000   6     4.21242300000  -0.18663200000  -0.43755100000
C    0.00000000000   3.17480000000   0.00000000000   6     0.67563000000   0.01061000000   0.04838200000
C    0.00000000000   0.00000000000   3.17480000000   6     0.84941100000  -0.19998600000  -0.14948400000
C    4.76220000000   1.58740000000   3.17480000000   6     1.48170600000  -1.57605100000   1.47991700000
C    5.55590000000   0.79370000000   5.55590000000   6    -0.24133000000   0.32572200000  -0.20776100000
C    3.96850000000   5.55590000000   5.55590000000   6     1.88673800000   0.66648900000   1.38361900000
C    3.17480000000   4.76220000000   1.58740000000   6    -0.87348300000   0.03409000000   0.29587600000
C    0.79370000000   3.96850000000   3.96850000000   6    -1.88798500000  -1.90654800000   1.56651400000
C    5.55590000000   5.55590000000   0.79370000000   6    -0.33168700000   0.12312500000   0.02906600000
C    4.76220000000   0.00000000000   4.76220000000   6     0.02790500000  -0.25190600000  -0.16953000000
C    1.58740000000   1.58740000000   3.17480000000   6    -0.25625200000  -0.50389900000  -0.65987900000
C    3.17480000000   0.00000000000   0.00000000000   6    -0.97985300000  -0.46662600000  -0.06078400000
C    3.17480000000   3.17480000000   3.17480000000   6    -5.32374700000   0.45047600000   0.15716700000
C    3.96850000000   0.79370000000   0.79370000000   6     0.35511400000   0.48445800000   0.40457300000
C    4.76220000000   1.58740000000   0.00000000000   6     0.05421800000  -0.23689400000   0.23013500000
C    4.76220000000   0.00000000000   1.58740000000   6     0.04782300000  -0.12561600000  -0.14674100000
C    0.79370000000   5.55590000000   2.38110000000   6    -3.61550100000   0.05653400000   0.17416900000
C    1.58740000000   1.58740000000   0.00000000000   6    -0.17937900000  -0.06198000000   0.17615500000
C    2.38110000000   0.79370000000   5.55590000000   6     0.19296100000   0.20445000000   0.13633300000
C    3.96850000000   5.55590000000   2.38110000000   6     0.27730600000   0.22162800000   0.34019800000
C    3.17480000000   0.00000000000   3.17480000000   6    -0.10144000000  -0.49933500000  -0.42984600000
C    2.38110000000   2.38110000000   0.79370000000   6     1.87951500000  -1.31986400000  -1.39672200000
C    5.55590000000   0.79370000000   2.38110000000   6    -0.45482600000   0.14070800000   0.04883700000
C    0.79370000000   2.38110000000   2.38110000000   6    -1.50335900000  -1.43825000000   1.69983500000
C    5.55590000000   2.38110000000   0.79370000000   6    -0.48006300000   0.21594800000   0.16515100000
C    0.00000000000   1.58740000000   4.76220000000   6     0.35914800000  -0.18614200000   0.05248800000
C    2.38110000000   2.38110000000   3.96850000000   6     0.71406900000   0.45923700000   0.00068200000
C    0.00000000000   0.00000000000   0.00000000000   6     0.38806200000  -0.35368700000   0.37670600000
C    3.96850000000   2.38110000000   5.55590000000   6     0.03417700000   0.20662200000  -0.42479900000
C    2.38110000000   0.79370000000   2.38110000000   6     1.97594500000   2.12790100000   1.93358500000
C    0.79370000000   5.55590000000   5.55590000000   6    -1.58095800000   1.52054200000  -1.89515200000
C    0.79370000000   0.79370000000   0.79370000000   6    -1.57913700000   1.72571400000  -1.47935000000
C    0.00000000000   4.76220000000   4.76220000000   6     0.50116300000  -0.02898800000  -0.13138800000
C    4.76220000000   4.76220000000   0.00000000000   6     0.15253300000   0.08894300000  -0.03456400000
C    0.00000000000   4.76220000000   1.58740000000   6     1.11936400000   0.68969200000  -0.18518700000
C    0.00000000000   1.58740000000   1.58740000000   6     0.39016000000  -0.07238400000  -0.02811700000
C    3.96850000000   3.96850000000   0.79370000000   6     0.30514900000  -0.55784200000  -0.10177700000
C    0.79370000000   2.38110000000   5.55590000000   6    -0.26956400000   0.10090300000   0.25869300000
C    5.55590000000   5.55590000000   3.96850000000   6    -0.40011000000  -0.09007800000  -0.05124500000
C    0.79370000000   0.79370000000   3.96850000000   6    -0.26927700000   0.22500200000  -0.08342600000
C    4.76220000000   3.17480000000   4.76220000000   6     1.45829600000  -1.34558800000   1.78840200000
C    5.55590000000   2.38110000000   3.96850000000   6    -0.46861300000  -0.01028000000  -0.05110300000
C    0.00000000000   3.17480000000   3.17480000000   6     0.42083300000   0.34618500000  -0.39169100000
C    0.79370000000   3.96850000000   0.79370000000   6    -3.03819200000  -1.02204500000  -0.52595700000
C    3.17480000000   1.58740000000   4.76220000000   6    -0.09660000000  -0.21207000000  -0.04609000000
C    2.38110000000   3.96850000000   2.38110000000   6     5.04348100000  -0.34290500000  -0.08630900000
C    4.76220000000   4.76220000000   3.17480000000   6     1.09698300000   2.48600600000  -1.29279100000
C    5.55590000000   3.96850000000   5.55590000000   6    -0.45183600000  -0.02689000000   0.05038200000
C    5.55590000000   3.96850000000   2.38110000000   6    -0.68930600000  -0.92846800000   0.42310400000
C    1.58740000000   0.00000000000   4.76220000000   6     0.07569900000  -0.51842500000   0.09387200000
C    3.17480000000   3.17480000000   0.00000000000   6     1.66731700000  -0.50559100000   1.83960300000
C    3.96850000000   0.79370000000   3.96850000000   6     0.22421400000   0.36783500000   0.13374300000
C    1.58740000000   3.17480000000   4.76220000000   6    -1.81905000000  -0.45522700000  -1.45820800000
C    4.76220000000   3.17480000000   1.58740000000   6     1.51111400000   1.67257200000  -1.53563600000
C    2.38110000000   5.55590000000   3.96850000000   6     0.33101700000   2.62322300000   0.04368900000
