14
energy=-79.691276    virial="199.622364    0.0    -0.0    0.0    199.622364    -0.0    -0.0    -0.0    199.622364"    Lattice="4.263000011   0.0   0.0   0.0   4.263000011   0.0   0.0   0.0   4.263000011"     Properties=species:S:1:pos:R:3:Z:I:1:force:R:3
Sr    0.00000000000   0.00000000000   0.00000000000   38    -0.00000000000  -0.00000000000  -0.00000000000
Sr    2.13150000000   2.13150000000   2.13150000000   38    -0.00000000000  -0.00000000000  -0.00000000000
B    1.06575000000   0.00000000000   2.13150000000   5     0.00000000000   0.00000000000  -0.00000000000
B    3.19725000000   0.00000000000   2.13150000000   5    -0.00000000000   0.00000000000   0.00000000000
B    2.13150000000   1.06575000000   0.00000000000   5    -0.00000000000  -0.00000000000  -0.00000000000
B    2.13150000000   3.19725000000   0.00000000000   5    -0.00000000000   0.00000000000   0.00000000000
B    0.00000000000   2.13150000000   1.06575000000   5    -0.00000000000   0.00000000000  -0.00000000000
B    0.00000000000   2.13150000000   3.19725000000   5     0.00000000000  -0.00000000000   0.00000000000
C    1.06575000000   2.13150000000   0.00000000000   6    -0.00000000000  -0.00000000000   0.00000000000
C    3.19725000000   2.13150000000   0.00000000000   6     0.00000000000   0.00000000000   0.00000000000
C    0.00000000000   1.06575000000   2.13150000000   6    -0.00000000000  -0.00000000000  -0.00000000000
C    0.00000000000   3.19725000000   2.13150000000   6     0.00000000000  -0.00000000000   0.00000000000
C    2.13150000000   0.00000000000   1.06575000000   6     0.00000000000   0.00000000000   0.00000000000
C    2.13150000000   0.00000000000   3.19725000000   6     0.00000000000  -0.00000000000  -0.00000000000
